/*----------------------------------------*- C++
-*-----------------------------------------*\
 | ---------                          |
                   |
 | \\          /  F ield              |  OpenFOAM : The Open Source CFD
Toolbox               |
 |   \\      /   O peration           |  Version  : 2506
                  |
 |     \\   /    A nd                 |  Website  : www.openfoam.com
                  |
 |       \\/     M anipulation        |
                  |

 \*---------------------------------------------------------------------------------------------------------------------------------------

 FoamFile
{
 Version    2.0;
 format     ascii;
 class      volVvectorField;
 location   "0";
 object     U;
}
//************************************************************************************************************//
